##############################################################################
#                                                                            #
# Ce-Ge-Pd         # CePdGe                                        #  312084 #
#                                                                            #
##############################################################################
#                                                                            #
#                           Pearson's Crystal Data                           #
#      Crystal Structure Database for Inorganic Compounds (on DVD)           #
#                              Release 2023/24                               #
#                  Editors: Pierre Villars and Karin Cenzual                 #
#                                                                            #
#   Copyright (c) ASM International & Material Phases Data System (MPDS),    #
# Switzerland & National Institute for Materials Science (NIMS), Japan, 2023 #
#                   All rights reserved. Version 2023.07                     #
#                                                                            #
#   This copy of Pearson's Crystal Data is licensed to:                      #
#   Hunter College - City University of New York                             #
#                                                                            #
##############################################################################

data_312084
_audit_creation_date                     2024-02-24
_audit_creation_method
;
Pearson's Crystal Data browser
;
#_database_code_PCD                      312084
_database_code_PDF                       04-002-1529

# Entry summary

_chemical_formula_structural             'Ce Pd Ge'
_chemical_formula_sum                    'Ce Ge Pd'
_chemical_name_mineral                   ?
_chemical_compound_source                ?
_chemical_name_structure_type            KHg~2~,oI12,74
_chemical_formula_weight                 319.1

# Bibliographic data

_publ_section_title
'Magnetic properties of RPdGe ternary compounds'                              
_journal_coden_ASTM                      JMMMDC
_journal_name_full                       'J. Magn. Magn. Mater.'
_journal_year                            1994
_journal_volume                          131
_journal_page_first                      139
_journal_page_last                       147
_journal_language                        English
loop_
 _publ_author_name
 _publ_author_address
'Kotsanidis P.A.'
;
Thrace Democritus University
Department of Electrical Engineering
Xanthi
Greece
;
'Yakinthos J.K.'
;
Thrace Democritus University
Department of Electrical Engineering
Xanthi
Greece
;
'Roudaut E.'
;
Atomic Energy Commission (CEA)
Departement de Recherche Fondamentale sur la Matiere Condensee (DRFMC)
Grenoble
France
;
'Gamari Seale H.'
;
National Center of Scientific Research "Demokritos" (NRCPS)
Institute of Materials Science (IMS)
Athens-Agia Paraskevi
Greece
;

# Standardized crystallographic data

_cell_length_a                           4.487
_cell_length_b                           7.305
_cell_length_c                           7.679
_cell_angle_alpha                        90
_cell_angle_beta                         90
_cell_angle_gamma                        90
_cell_volume                             251.7
_cell_formula_units_Z                    4
_space_group_IT_number                   74
_space_group_name_H-M_alt                'I m m a'
loop_
 _space_group_symop_id
 _space_group_symop_operation_xyz
 1 'x, y, z'
 2 '-x, 1/2-y, z'
 3 '-x, -y, -z'
 4 '-x, 1/2+y, -z'
 5 '-x, y, z'
 6 'x, 1/2-y, z'
 7 'x, -y, -z'
 8 'x, 1/2+y, -z'
 9 '1/2+x, 1/2+y, 1/2+z'
 10 '1/2-x, 1-y, 1/2+z'
 11 '1/2-x, 1/2-y, 1/2-z'
 12 '1/2-x, 1+y, 1/2-z'
 13 '1/2-x, 1/2+y, 1/2+z'
 14 '1/2+x, 1-y, 1/2+z'
 15 '1/2+x, 1/2-y, 1/2-z'
 16 '1/2+x, 1+y, 1/2-z'

# Atomic positions taken from type-defining entry

loop_
 _atom_type_symbol
 Ge
 Pd
 Ce
loop_
 _atom_site_label
 _atom_site_type_symbol
 _atom_site_symmetry_multiplicity
 _atom_site_Wyckoff_symbol
 _atom_site_fract_x
 _atom_site_fract_y
 _atom_site_fract_z
 _atom_site_occupancy
 M1A Ge 8 h 0 0.06 0.163 0.500
 M1B Pd 8 h 0 0.06 0.163 0.500
 Ce1 Ce 4 e 0 0.25 0.547 1


_exptl_crystal_colour                    ?
_exptl_crystal_density_meas              ?
_exptl_crystal_density_diffrn            8.42
_cell_measurement_temperature            ?
_cell_measurement_radiation              'X-rays, Cu Ka'
_cell_measurement_reflns_used            ?
_diffrn_ambient_temperature              ?
_diffrn_measurement_device               'automatic diffractometer'
_diffrn_measurement_device_type          ?
_diffrn_radiation_type                   ?
_diffrn_reflns_number                    ?
_exptl_absorpt_coefficient_mu            ?
_exptl_absorpt_correction_type           ?
_computing_structure_solution            ?
_refine_ls_number_parameters             ?
_refine_ls_number_reflns                 ?
_refine_ls_R_factor_gt                   ?
_refine_ls_wR_factor_gt                  ?

# End of data set 312084

