##############################################################################
#                                                                            #
# Ga-Ni-U          # UNi2.6Ga2.4                                   #  381111 #
#                                                                            #
##############################################################################
#                                                                            #
#                           Pearson's Crystal Data                           #
#      Crystal Structure Database for Inorganic Compounds (on DVD)           #
#                              Release 2023/24                               #
#                  Editors: Pierre Villars and Karin Cenzual                 #
#                                                                            #
#   Copyright (c) ASM International & Material Phases Data System (MPDS),    #
# Switzerland & National Institute for Materials Science (NIMS), Japan, 2023 #
#                   All rights reserved. Version 2023.07                     #
#                                                                            #
#   This copy of Pearson's Crystal Data is licensed to:                      #
#   Hunter College - City University of New York                             #
#                                                                            #
##############################################################################

data_381111
_audit_creation_date                     2024-02-24
_audit_creation_method
;
Pearson's Crystal Data browser
;
#_database_code_PCD                      381111
_database_code_PDF                       04-019-8007

# Entry summary

_chemical_formula_structural             'U Ni~2.6~ Ga~2.4~'
_chemical_formula_sum                    'Ga2.42 Ni2.58 U'
_chemical_name_mineral                   ?
_chemical_compound_source                ?
_chemical_name_structure_type            U(Ni~0.52~Ga~0.48~)~5~,oS12,65
_chemical_formula_weight                 558.0

# Bibliographic data

_publ_section_title
;
U(Ni~1-x~Ga~x~)~5~ novel compounds with CaCu~5~-type: crystal structure and magnetism
;
_journal_coden_ASTM                      JMMMDC
_journal_name_full                       'J. Magn. Magn. Mater.'
_journal_year                            1995
_journal_volume                          139
_journal_page_first                      23
_journal_page_last                       32
_journal_language                        English
loop_
 _publ_author_name
 _publ_author_address
'Zelinskii A.V.'
;
Vienna University
Institut fur Physikalische Chemie
Vienna
Austria
;
'Grin Y.'
;
Vienna University
Institut fur Physikalische Chemie
Vienna
Austria
;
'Hiebl K.'
;
Vienna University
Institut fur Physikalische Chemie
Vienna
Austria
;
'Rogl P.'
;
Vienna University
Institut fur Physikalische Chemie
Vienna
Austria
;
'Noel H.'
;
Rennes I University
Laboratoire de Chimie du Solide et Inorganique Moleculaire (LCSIM)
Rennes
France
;
'Hilscher G.'
;
Vienna University of Technology
Institut fur Experimentalphysik
Vienna
Austria
;
'Schaudy G.'
;
Vienna University of Technology
Institut fur Experimentalphysik
Vienna
Austria
;

# Standardized crystallographic data

_cell_length_a                           5.0743
_cell_length_b                           8.8371
_cell_length_c                           4.0734
_cell_angle_alpha                        90
_cell_angle_beta                         90
_cell_angle_gamma                        90
_cell_volume                             182.7
_cell_formula_units_Z                    2
_space_group_IT_number                   65
_space_group_name_H-M_alt                'C m m m'
loop_
 _space_group_symop_id
 _space_group_symop_operation_xyz
 1 'x, y, z'
 2 '-x, -y, -z'
 3 '-x, -y, z'
 4 '-x, y, -z'
 5 '-x, y, z'
 6 'x, -y, -z'
 7 'x, -y, z'
 8 'x, y, -z'
 9 '1/2+x, 1/2+y, z'
 10 '1/2-x, 1/2-y, -z'
 11 '1/2-x, 1/2-y, z'
 12 '1/2-x, 1/2+y, -z'
 13 '1/2-x, 1/2+y, z'
 14 '1/2+x, 1/2-y, -z'
 15 '1/2+x, 1/2-y, z'
 16 '1/2+x, 1/2+y, -z'
loop_
 _atom_type_symbol
 Ni
 Ga
 U
loop_
 _atom_site_label
 _atom_site_type_symbol
 _atom_site_symmetry_multiplicity
 _atom_site_Wyckoff_symbol
 _atom_site_fract_x
 _atom_site_fract_y
 _atom_site_fract_z
 _atom_site_occupancy
 NG1A Ni 4 j 0 0.172 0.5 0.88(1)
 NG1B Ga 4 j 0 0.172 0.5 0.12(1)
 NG2A Ga 4 e 0.25 0.25 0 0.59(6)
 NG2B Ni 4 e 0.25 0.25 0 0.41(6)
 U U 2 c 0.5 0 0.5 1
 Ga Ga 2 a 0 0 0 1


_exptl_crystal_colour                    ?
_exptl_crystal_density_meas              ?
_exptl_crystal_density_diffrn            10.15
_cell_measurement_temperature            ?
_cell_measurement_radiation              'X-rays, Cu Ka'
_cell_measurement_reflns_used            ?
_diffrn_ambient_temperature              ?
_diffrn_measurement_device               'automatic diffractometer'
_diffrn_measurement_device_type          ?
_diffrn_radiation_type                   'X-rays, Cu Ka'
_diffrn_reflns_number                    ?
_exptl_absorpt_coefficient_mu            ?
_exptl_absorpt_correction_type           ?
_computing_structure_solution            'starting values from the literature'
_refine_ls_number_parameters             ?
_refine_ls_number_reflns                 ?
_refine_ls_R_factor_gt                   ?
_refine_ls_wR_factor_gt                  ?
_pd_proc_ls_proof_R_factor               0.1403
_pd_proc_ls_proof_wR_factor              0.0606
_refine_ls_R_I_factor                    ?

# End of data set 381111

