##############################################################################
#                                                                            #
# Co-Er            # Er2Co17 hex                                   #  251631 #
#                                                                            #
##############################################################################
#                                                                            #
#                           Pearson's Crystal Data                           #
#      Crystal Structure Database for Inorganic Compounds (on DVD)           #
#                              Release 2023/24                               #
#                  Editors: Pierre Villars and Karin Cenzual                 #
#                                                                            #
#   Copyright (c) ASM International & Material Phases Data System (MPDS),    #
# Switzerland & National Institute for Materials Science (NIMS), Japan, 2023 #
#                   All rights reserved. Version 2023.07                     #
#                                                                            #
#   This copy of Pearson's Crystal Data is licensed to:                      #
#   Hunter College - City University of New York                             #
#                                                                            #
##############################################################################

data_251631
_audit_creation_date                     2024-05-31
_audit_creation_method
;
Pearson's Crystal Data browser
;
#_database_code_PCD                      251631
_database_code_PDF                       04-001-1021

# Entry summary

_chemical_formula_structural             'Er~1.9~ Co~17.2~'
_chemical_formula_sum                    'Co17.20 Er1.90'
_chemical_name_mineral                   ?
_chemical_compound_source                ?
_chemical_name_structure_type            Lu~1.82~Fe~17.35~,hP80,194
_chemical_formula_weight                 1331.4

# Bibliographic data

_publ_section_title
;
Evidence of disordered substitutions in the "Th~2~Ni~17~-type" structure. Exact structure determination of the Th-Ni, Y-Ni and Er-Co compounds
;
_journal_coden_ASTM                      JCOMAH
_journal_name_full                       'J. Less-Common Met.'
_journal_year                            1972
_journal_volume                          29
_journal_page_first                      389
_journal_page_last                       396
_journal_language                        English
loop_
 _publ_author_name
 _publ_author_address
''
;
;

# Standardized crystallographic data

_cell_length_a                           8.32
_cell_length_b                           8.32
_cell_length_c                           8.12
_cell_angle_alpha                        90
_cell_angle_beta                         90
_cell_angle_gamma                        120
_cell_volume                             486.78
_cell_formula_units_Z                    2
_space_group_IT_number                   194
_space_group_name_H-M_alt                'P 63/m m c'
loop_
 _space_group_symop_id
 _space_group_symop_operation_xyz
 1 'x, y, z'
 2 '-x+y, -x, 1/2-z'
 3 '-x+y, -x, z'
 4 '-x+y, y, 1/2-z'
 5 '-x+y, y, z'
 6 '-x, -x+y, -z'
 7 '-x, -x+y, 1/2+z'
 8 '-x, -y, -z'
 9 '-x, -y, 1/2+z'
 10 '-y, -x, 1/2-z'
 11 '-y, -x, z'
 12 '-y, x-y, 1/2-z'
 13 '-y, x-y, z'
 14 'x, x-y, 1/2-z'
 15 'x, x-y, z'
 16 'x, y, 1/2-z'
 17 'x-y, -y, -z'
 18 'x-y, -y, 1/2+z'
 19 'x-y, x, -z'
 20 'x-y, x, 1/2+z'
 21 'y, -x+y, -z'
 22 'y, -x+y, 1/2+z'
 23 'y, x, -z'
 24 'y, x, 1/2+z'
loop_
 _atom_type_symbol
 Co
 Er
loop_
 _atom_site_label
 _atom_site_type_symbol
 _atom_site_symmetry_multiplicity
 _atom_site_Wyckoff_symbol
 _atom_site_fract_x
 _atom_site_fract_y
 _atom_site_fract_z
 _atom_site_occupancy
 Co4(2) Co 12 k 0.1658 0.3316 0.0 0.2
 Co4(1) Co 12 k 0.1658 0.3316 0.0232 0.8
 Co5(2) Co 12 j 0.0 0.292 0.25 0.1
 Co5(3) Co 12 j 0.3332 0.0215 0.25 0.1
 Co5(1) Co 12 j 0.3745 0.0415 0.25 0.8
 Co3 Co 6 g 0.5 0 0 1
 Co2 Co 4 f 0.333333 0.666667 0.606 0.9
 Co1 Co 4 e 0 0 0.11 0.2
 Er3 Er 2 d 0.333333 0.666667 0.75 0.1
 Er2 Er 2 c 0.333333 0.666667 0.25 1
 Er1 Er 2 b 0 0 0.25 0.8


_exptl_crystal_colour                    ?
_exptl_crystal_density_meas              ?
_exptl_crystal_density_diffrn            9.08
_cell_measurement_temperature            ?
_cell_measurement_radiation              ?
_cell_measurement_reflns_used            ?
_diffrn_ambient_temperature              ?
_diffrn_measurement_device               'Weissenberg photographs'
_diffrn_measurement_device_type          ?
_diffrn_radiation_type                   'X-rays, Mo Ka1'
_diffrn_reflns_number                    ?
_exptl_absorpt_coefficient_mu            ?
_exptl_absorpt_correction_type           ?
_computing_structure_solution            ?
_refine_ls_number_parameters             ?
_refine_ls_number_reflns                 ?
_refine_ls_R_factor_gt                   0.082
_refine_ls_wR_factor_gt                  ?

# End of data set 251631

