##############################################################################
#                                                                            #
# Co-In            # CoIn3                                         #  457677 #
#                                                                            #
##############################################################################
#                                                                            #
#                           Pearson's Crystal Data                           #
#      Crystal Structure Database for Inorganic Compounds (on DVD)           #
#                              Release 2023/24                               #
#                  Editors: Pierre Villars and Karin Cenzual                 #
#                                                                            #
#   Copyright (c) ASM International & Material Phases Data System (MPDS),    #
# Switzerland & National Institute for Materials Science (NIMS), Japan, 2023 #
#                   All rights reserved. Version 2023.07                     #
#                                                                            #
#   This copy of Pearson's Crystal Data is licensed to:                      #
#   Hunter College - City University of New York                             #
#                                                                            #
##############################################################################

data_457677
_audit_creation_date                     2024-05-31
_audit_creation_method
;
Pearson's Crystal Data browser
;
#_database_code_PCD                      457677
_database_code_PDF                       04-003-6343

# Entry summary

_chemical_formula_structural             'Co In~3~'
_chemical_formula_sum                    'Co In3'
_chemical_name_mineral                   ?
_chemical_compound_source                ?
_chemical_name_structure_type            IrIn~3~,tP16,136
_chemical_formula_weight                 403.4

# Bibliographic data

_publ_section_title
'Crystal structure of the ordered phase CoIn~3~'                              
_journal_coden_ASTM                      SPHCA6
_journal_name_full                       'Sov. Phys. Crystallogr.'
_journal_year                            1977
_journal_volume                          22
_journal_page_first                      107
_journal_page_last                       108
_journal_language                        English
loop_
 _publ_author_name
 _publ_author_address
''
;
;

# Standardized crystallographic data

_cell_length_a                           6.829
_cell_length_b                           6.829
_cell_length_c                           7.094
_cell_angle_alpha                        90
_cell_angle_beta                         90
_cell_angle_gamma                        90
_cell_volume                             330.83
_cell_formula_units_Z                    4
_space_group_IT_number                   136
_space_group_name_H-M_alt                'P 42/m n m'
loop_
 _space_group_symop_id
 _space_group_symop_operation_xyz
 1 'x, y, z'
 2 '1/2-x, 1/2+y, 1/2-z'
 3 '1/2-x, 1/2+y, 1/2+z'
 4 '-x, -y, -z'
 5 '-x, -y, z'
 6 '1/2-y, 1/2+x, 1/2-z'
 7 '1/2-y, 1/2+x, 1/2+z'
 8 '-y, -x, -z'
 9 '-y, -x, z'
 10 '1/2+x, 1/2-y, 1/2-z'
 11 '1/2+x, 1/2-y, 1/2+z'
 12 'x, y, -z'
 13 '1/2+y, 1/2-x, 1/2-z'
 14 '1/2+y, 1/2-x, 1/2+z'
 15 'y, x, -z'
 16 'y, x, z'
loop_
 _atom_type_symbol
 In
 Co
loop_
 _atom_site_label
 _atom_site_type_symbol
 _atom_site_symmetry_multiplicity
 _atom_site_Wyckoff_symbol
 _atom_site_fract_x
 _atom_site_fract_y
 _atom_site_fract_z
 _atom_site_occupancy
 In(i) In 8 j 0.3458 0.3458 0.25 1
 Co(f) Co 4 f 0.15 0.15 0 1
 In(e) In 4 c 0 0.5 0 1


_exptl_crystal_colour                    ?
_exptl_crystal_density_meas              ?
_exptl_crystal_density_diffrn            8.10
_cell_measurement_temperature            ?
_cell_measurement_radiation              'X-rays, Fe Ka'
_cell_measurement_reflns_used            32
_diffrn_ambient_temperature              ?
_diffrn_measurement_device               'automatic diffractometer'
_diffrn_measurement_device_type          ?
_diffrn_radiation_type                   'X-rays, Fe Ka'
_diffrn_reflns_number                    ?
_exptl_absorpt_coefficient_mu            ?
_exptl_absorpt_correction_type           ?
_computing_structure_solution            'starting values from the literature'
_refine_ls_number_parameters             ?
_refine_ls_number_reflns                 ?
_refine_ls_R_factor_gt                   0.054
_refine_ls_wR_factor_gt                  ?
_pd_proc_ls_proof_R_factor               ?
_pd_proc_ls_proof_wR_factor              ?
_refine_ls_R_I_factor                    ?

# Published diffraction lines

loop_
 _refln_index_h
 _refln_index_k
 _refln_index_l
 _refln_d_spacing
 _refln_intensity_meas
 0 1 1 4.92 10
 1 1 1 3.992 8
 1 2 0 3.054 40
 1 1 2 2.859 58
 0 2 2 2.46 44
 2 2 0 2.415 13
 1 2 2 2.315 100
 2 2 1 2.286 2
 0 1 3 2.234 2
 0 3 1 2.168 59
 1 3 0 2.16 ?
 2 2 2 1.996 5
 0 0 4 1.773 16
 0 4 0 1.707 2
 2 2 3 1.689 2
 2 3 2 1.671 3
 1 4 0 1.656 3
 1 4 1 1.613 5
 0 4 2 1.538 33
 1 2 4 1.534 ?
 1 4 2 1.501 11
 2 4 1 1.493 ?
 3 3 2 1.466 16
 2 2 4 1.429 4
 1 3 4 1.371 26
 3 4 0 1.366 ?
 1 1 5 1.361 ?

# End of data set 457677

