##############################################################################
#                                                                            #
# Co-Er            # Er12Co7                                       #  451654 #
#                                                                            #
##############################################################################
#                                                                            #
#                           Pearson's Crystal Data                           #
#      Crystal Structure Database for Inorganic Compounds (on DVD)           #
#                              Release 2023/24                               #
#                  Editors: Pierre Villars and Karin Cenzual                 #
#                                                                            #
#   Copyright (c) ASM International & Material Phases Data System (MPDS),    #
# Switzerland & National Institute for Materials Science (NIMS), Japan, 2023 #
#                   All rights reserved. Version 2023.07                     #
#                                                                            #
#   This copy of Pearson's Crystal Data is licensed to:                      #
#   Hunter College - City University of New York                             #
#                                                                            #
##############################################################################

data_451654
_audit_creation_date                     2024-05-31
_audit_creation_method
;
Pearson's Crystal Data browser
;
#_database_code_PCD                      451654
_database_code_PDF                       04-003-1032

# Entry summary

_chemical_formula_structural             'Er~12~ Co~7~'
_chemical_formula_sum                    'Co7 Er12'
_chemical_name_mineral                   ?
_chemical_compound_source                ?
_chemical_name_structure_type            Ho~12~Co~7~,mP38,14
_chemical_formula_weight                 2419.7

# Bibliographic data

_publ_section_title
'R~12~Co~7~ compounds with R= Gd, Tb, Dy, Ho, Er'
_journal_coden_ASTM                      ACBCAR
_journal_name_full                       'Acta Crystallogr. B'
_journal_year                            1976
_journal_volume                          32
_journal_page_first                      2697
_journal_page_last                       2699
_journal_language                        English
loop_
 _publ_author_name
 _publ_author_address
''
;
;

# Standardized crystallographic data

_cell_length_a                           8.3
_cell_length_b                           11.16
_cell_length_c                           11.0388
_cell_angle_alpha                        90
_cell_angle_beta                         124.28
_cell_angle_gamma                        90
_cell_volume                             844.89
_cell_formula_units_Z                    2
_space_group_IT_number                   14
_space_group_name_H-M_alt                'P 1 21/c 1'
loop_
 _space_group_symop_id
 _space_group_symop_operation_xyz
 1 'x, y, z'
 2 '-x, -y, -z'
 3 '-x, 1/2+y, 1/2-z'
 4 'x, 1/2-y, 1/2+z'

# Atomic positions taken from type-defining entry

loop_
 _atom_type_symbol
 Er
 Co
loop_
 _atom_site_label
 _atom_site_type_symbol
 _atom_site_symmetry_multiplicity
 _atom_site_Wyckoff_symbol
 _atom_site_fract_x
 _atom_site_fract_y
 _atom_site_fract_z
 _atom_site_occupancy
 Er1 Er 4 e 0.0007 0.160 0.3397 1
 Co1 Co 4 e 0.010 0.411 0.094 1
 Er2 Er 4 e 0.2476 0.2027 0.1729 1
 Er3 Er 4 e 0.2671 0.7957 0.0396 1
 Er4 Er 4 e 0.2723 0.4281 0.4137 1
 Er5 Er 4 e 0.3621 0.505 0.1528 1
 Co2 Co 4 e 0.418 0.164 0.471 1
 Co3 Co 4 e 0.591 0.194 0.152 1
 Er6 Er 4 e 0.7737 0.4296 0.1969 1
 Co4 Co 2 a 0 0 0 1


_exptl_crystal_colour                    ?
_exptl_crystal_density_meas              ?
_exptl_crystal_density_diffrn            9.51
_cell_measurement_temperature            ?
_cell_measurement_radiation              'X-rays, Cu Ka'
_cell_measurement_reflns_used            ?
_diffrn_ambient_temperature              ?
_diffrn_measurement_device               'Guinier-de Wolff film'
_diffrn_measurement_device_type          ?
_diffrn_radiation_type                   ?
_diffrn_reflns_number                    ?
_exptl_absorpt_coefficient_mu            ?
_exptl_absorpt_correction_type           ?
_computing_structure_solution            ?
_refine_ls_number_parameters             ?
_refine_ls_number_reflns                 ?
_refine_ls_R_factor_gt                   ?
_refine_ls_wR_factor_gt                  ?

# End of data set 451654
