##############################################################################
#                                                                            #
# Co-In            # CoIn3                                         # 1538436 #
#                                                                            #
##############################################################################
#                                                                            #
#                           Pearson's Crystal Data                           #
#      Crystal Structure Database for Inorganic Compounds (on DVD)           #
#                              Release 2023/24                               #
#                  Editors: Pierre Villars and Karin Cenzual                 #
#                                                                            #
#   Copyright (c) ASM International & Material Phases Data System (MPDS),    #
# Switzerland & National Institute for Materials Science (NIMS), Japan, 2023 #
#                   All rights reserved. Version 2023.07                     #
#                                                                            #
#   This copy of Pearson's Crystal Data is licensed to:                      #
#   Hunter College - City University of New York                             #
#                                                                            #
##############################################################################

data_1538436
_audit_creation_date                     2024-05-31
_audit_creation_method
;
Pearson's Crystal Data browser
;
#_database_code_PCD                      1538436
_database_code_PDF                       ?

# Entry summary

_chemical_formula_structural             'Co In~3~'
_chemical_formula_sum                    'Co In3'
_chemical_name_mineral                   ?
_chemical_compound_source                ?
_chemical_name_structure_type            RuIn~3~,tP16,118
_chemical_formula_weight                 403.4

# Bibliographic data

_publ_section_title
;
The phase relations of the Co-Ni-In ternary system at 673 K and 873 K and magnetic properties of their compounds
;
_journal_coden_ASTM                      MATEG9
_journal_name_full                       Materials
_journal_year                            2020
_journal_volume                          13
_journal_page_first                      1
_journal_page_last                       22
_journal_language                        English
loop_
 _publ_author_name
 _publ_author_address
''
;
;

# Standardized crystallographic data

_cell_length_a                           6.817
_cell_length_b                           6.817
_cell_length_c                           7.088
_cell_angle_alpha                        90
_cell_angle_beta                         90
_cell_angle_gamma                        90
_cell_volume                             329.4
_cell_formula_units_Z                    4
_space_group_IT_number                   118
_space_group_name_H-M_alt                'P -4 n 2'
loop_
 _space_group_symop_id
 _space_group_symop_operation_xyz
 1 'x, y, z'
 2 '1/2-x, 1/2+y, 1/2+z'
 3 '-x, -y, z'
 4 '1/2-y, 1/2-x, 1/2-z'
 5 '-y, x, -z'
 6 '1/2+x, 1/2-y, 1/2+z'
 7 '1/2+y, 1/2+x, 1/2-z'
 8 'y, -x, -z'

# Atomic positions taken from type-defining entry

loop_
 _atom_type_symbol
 In
 Co
loop_
 _atom_site_label
 _atom_site_type_symbol
 _atom_site_symmetry_multiplicity
 _atom_site_Wyckoff_symbol
 _atom_site_fract_x
 _atom_site_fract_y
 _atom_site_fract_z
 _atom_site_occupancy
 In1 In 8 i 0.343 0.149 0.509 1
 Co1 Co 4 f 0.15 0.35 0.25 1
 In2 In 4 e 0 0 0.237 1


_exptl_crystal_colour                    ?
_exptl_crystal_density_meas              ?
_exptl_crystal_density_diffrn            8.13
_cell_measurement_temperature            ?
_cell_measurement_radiation              'X-rays, Cu Ka1'
_cell_measurement_wavelength             1.5406
_pd_proc_wavelength                      1.5406
_cell_measurement_reflns_used            ?
_diffrn_ambient_temperature              ?
_diffrn_measurement_device               'automatic diffractometer'
_diffrn_measurement_device_type          ?
_diffrn_radiation_type                   ?
_diffrn_reflns_number                    ?
_exptl_absorpt_coefficient_mu            ?
_exptl_absorpt_correction_type           ?
_computing_structure_solution            ?
_refine_ls_number_parameters             ?
_refine_ls_number_reflns                 ?
_refine_ls_R_factor_gt                   ?
_refine_ls_wR_factor_gt                  ?

# End of data set 1538436

