##############################################################################
#                                                                            #
# Co-Er            # Er3Co rt                                      #  262136 #
#                                                                            #
##############################################################################
#                                                                            #
#                           Pearson's Crystal Data                           #
#      Crystal Structure Database for Inorganic Compounds (on DVD)           #
#                              Release 2023/24                               #
#                  Editors: Pierre Villars and Karin Cenzual                 #
#                                                                            #
#   Copyright (c) ASM International & Material Phases Data System (MPDS),    #
# Switzerland & National Institute for Materials Science (NIMS), Japan, 2023 #
#                   All rights reserved. Version 2023.07                     #
#                                                                            #
#   This copy of Pearson's Crystal Data is licensed to:                      #
#   Hunter College - City University of New York                             #
#                                                                            #
##############################################################################

data_262136
_audit_creation_date                     2024-05-31
_audit_creation_method
;
Pearson's Crystal Data browser
;
#_database_code_PCD                      262136
_database_code_PDF                       04-001-3636

# Entry summary

_chemical_formula_structural             'Er~3~ Co'
_chemical_formula_sum                    'Co Er3'
_chemical_name_mineral                   ?
_chemical_compound_source                ?
_chemical_name_structure_type            Fe~3~C-b,oP16,62
_chemical_formula_weight                 560.7
_chemical_melting_point                  1168

# Bibliographic data

_publ_section_title                      'Das Zustandsbild Erbium-Kobalt'
_journal_coden_ASTM                      ZEMTAE
_journal_name_full                       'Z. Metallkd.'
_journal_year                            1966
_journal_volume                          57
_journal_page_first                      728
_journal_page_last                       731
_journal_language                        German
loop_
 _publ_author_name
 _publ_author_address
''
;
;

# Standardized crystallographic data

_cell_length_a                           6.902
_cell_length_b                           9.191
_cell_length_c                           6.189
_cell_angle_alpha                        90
_cell_angle_beta                         90
_cell_angle_gamma                        90
_cell_volume                             392.61
_cell_formula_units_Z                    4
_space_group_IT_number                   62
_space_group_name_H-M_alt                'P n m a'
loop_
 _space_group_symop_id
 _space_group_symop_operation_xyz
 1 'x, y, z'
 2 '1/2-x, -y, 1/2+z'
 3 '1/2-x, 1/2+y, 1/2+z'
 4 '-x, -y, -z'
 5 '-x, 1/2+y, -z'
 6 '1/2+x, 1/2-y, 1/2-z'
 7 '1/2+x, y, 1/2-z'
 8 'x, 1/2-y, z'

# Atomic positions taken from type-defining entry

loop_
 _atom_type_symbol
 Er
 Co
loop_
 _atom_site_label
 _atom_site_type_symbol
 _atom_site_symmetry_multiplicity
 _atom_site_Wyckoff_symbol
 _atom_site_fract_x
 _atom_site_fract_y
 _atom_site_fract_z
 _atom_site_occupancy
 Er1 Er 8 d 0.1834 0.0689 0.1656 1
 Er2 Er 4 c 0.0388 0.25 0.6578 1
 Co1 Co 4 c 0.3764 0.25 0.4426 1


_exptl_crystal_colour                    ?
_exptl_crystal_density_meas              ?
_exptl_crystal_density_diffrn            9.49
_cell_measurement_temperature            ?
_cell_measurement_radiation              'X-rays, Co Ka'
_cell_measurement_reflns_used            ?
_diffrn_ambient_temperature              ?
_diffrn_measurement_device               diffractometer
_diffrn_measurement_device_type          ?
_diffrn_radiation_type                   ?
_diffrn_reflns_number                    ?
_exptl_absorpt_coefficient_mu            ?
_exptl_absorpt_correction_type           ?
_computing_structure_solution            ?
_refine_ls_number_parameters             ?
_refine_ls_number_reflns                 ?
_refine_ls_R_factor_gt                   ?
_refine_ls_wR_factor_gt                  ?

# Published diffraction lines

loop_
 _refln_index_h
 _refln_index_k
 _refln_index_l
 _refln_d_spacing
 _refln_intensity_meas
 1 2 1 3.25 9
 2 1 0 3.23 ?
 0 0 2 3.09 15
 2 0 1 3.01 11
 2 1 1 2.86 37
 1 0 2 2.82 33
 2 2 0 2.76 52
 0 3 1 2.71 ?
 1 1 2 2.69 35
 0 2 2 2.56 6
 1 3 1 2.55 12
 2 2 1 2.52 111
 1 2 2 2.4 5
 0 4 0 2.3 21
 2 3 9 2.29 ?
 2 1 2 2.234 12
 3 0 1 2.158 21
 3 1 1 2.101 5
 1 1 3 1.934 4
 2 4 0 1.91 3
 1 2 3 1.815 10
 2 1 3 1.738 4
 4 0 1 1.663 28
 4 1 1 1.636 4
 2 5 0 1.622 3
 4 2 0 1.617 3
 0 5 2 1.583 27
 2 5 1 1.57 15

# End of data set 262136

