##############################################################################
#                                                                            #
# Er-In            # Er3In5                                        #  450164 #
#                                                                            #
##############################################################################
#                                                                            #
#                           Pearson's Crystal Data                           #
#      Crystal Structure Database for Inorganic Compounds (on DVD)           #
#                              Release 2023/24                               #
#                  Editors: Pierre Villars and Karin Cenzual                 #
#                                                                            #
#   Copyright (c) ASM International & Material Phases Data System (MPDS),    #
# Switzerland & National Institute for Materials Science (NIMS), Japan, 2023 #
#                   All rights reserved. Version 2023.07                     #
#                                                                            #
#   This copy of Pearson's Crystal Data is licensed to:                      #
#   Hunter College - City University of New York                             #
#                                                                            #
##############################################################################

data_450164
_audit_creation_date                     2024-05-31
_audit_creation_method
;
Pearson's Crystal Data browser
;
#_database_code_PCD                      450164
_database_code_PDF                       04-002-9681

# Entry summary

_chemical_formula_structural             'Er~3~ In~5~'
_chemical_formula_sum                    'Er3 In5'
_chemical_name_mineral                   ?
_chemical_compound_source                ?
_chemical_name_structure_type            Pu~3~Pd~5~,oS32,63
_chemical_formula_weight                 1075.9

# Bibliographic data

_publ_section_title
'The R~3~In~6~ and R~3~Tl~5~ phases of the rare earths'                       
_journal_coden_ASTM                      JCOMAH
_journal_name_full                       'J. Less-Common Met.'
_journal_year                            1981
_journal_volume                          81
_journal_page_first                      45
_journal_page_last                       53
_journal_language                        English
loop_
 _publ_author_name
 _publ_author_address
''
;
;

# Standardized crystallographic data

_cell_length_a                           9.77
_cell_length_b                           7.955
_cell_length_c                           10.25
_cell_angle_alpha                        90
_cell_angle_beta                         90
_cell_angle_gamma                        90
_cell_volume                             796.63
_cell_formula_units_Z                    4
_space_group_IT_number                   63
_space_group_name_H-M_alt                'C m c m'
loop_
 _space_group_symop_id
 _space_group_symop_operation_xyz
 1 'x, y, z'
 2 '-x, -y, -z'
 3 '-x, -y, 1/2+z'
 4 '-x, y, 1/2-z'
 5 '-x, y, z'
 6 'x, -y, -z'
 7 'x, -y, 1/2+z'
 8 'x, y, 1/2-z'
 9 '1/2+x, 1/2+y, z'
 10 '1/2-x, 1/2-y, -z'
 11 '1/2-x, 1/2-y, 1/2+z'
 12 '1/2-x, 1/2+y, 1/2-z'
 13 '1/2-x, 1/2+y, z'
 14 '1/2+x, 1/2-y, -z'
 15 '1/2+x, 1/2-y, 1/2+z'
 16 '1/2+x, 1/2+y, 1/2-z'

# Atomic positions taken from type-defining entry

loop_
 _atom_type_symbol
 In
 Er
loop_
 _atom_site_label
 _atom_site_type_symbol
 _atom_site_symmetry_multiplicity
 _atom_site_Wyckoff_symbol
 _atom_site_fract_x
 _atom_site_fract_y
 _atom_site_fract_z
 _atom_site_occupancy
 In1 In 8 g 0.2219 0.2863 0.25 1
 In2 In 8 f 0 0.3147 0.0490 1
 Er1 Er 8 e 0.2018 0 0 1
 In3 In 4 c 0 0.0254 0.25 1
 Er2 Er 4 c 0 0.6251 0.25 1


_exptl_crystal_colour                    ?
_exptl_crystal_density_meas              ?
_exptl_crystal_density_diffrn            8.97
_cell_measurement_temperature            ?
_cell_measurement_radiation              'X-rays, Fe Ka'
_cell_measurement_reflns_used            ?
_diffrn_ambient_temperature              ?
_diffrn_measurement_device               ?
_diffrn_measurement_device_type          ?
_diffrn_radiation_type                   ?
_diffrn_reflns_number                    ?
_exptl_absorpt_coefficient_mu            ?
_exptl_absorpt_correction_type           ?
_computing_structure_solution            ?
_refine_ls_number_parameters             ?
_refine_ls_number_reflns                 ?
_refine_ls_R_factor_gt                   ?
_refine_ls_wR_factor_gt                  ?

# End of data set 450164

