##############################################################################
#                                                                            #
# Co-Er            # ErCo3                                         #  452301 #
#                                                                            #
##############################################################################
#                                                                            #
#                           Pearson's Crystal Data                           #
#      Crystal Structure Database for Inorganic Compounds (on DVD)           #
#                              Release 2023/24                               #
#                  Editors: Pierre Villars and Karin Cenzual                 #
#                                                                            #
#   Copyright (c) ASM International & Material Phases Data System (MPDS),    #
# Switzerland & National Institute for Materials Science (NIMS), Japan, 2023 #
#                   All rights reserved. Version 2023.07                     #
#                                                                            #
#   This copy of Pearson's Crystal Data is licensed to:                      #
#   Hunter College - City University of New York                             #
#                                                                            #
##############################################################################

data_452301
_audit_creation_date                     2024-05-31
_audit_creation_method
;
Pearson's Crystal Data browser
;
#_database_code_PCD                      452301
_database_code_PDF                       04-003-1594

# Entry summary

_chemical_formula_structural             'Er Co~3~'
_chemical_formula_sum                    'Co3 Er'
_chemical_name_mineral                   ?
_chemical_compound_source                ?
_chemical_name_structure_type            PuNi~3~,hR36,166
_chemical_formula_weight                 344.1

# Bibliographic data

_publ_section_title
'Rare Earth Cobalt Compounds with the AB~3~ Structure'                        
_journal_coden_ASTM                      TMSAAB
_journal_name_full                       'Trans. Metall. Soc. AIME'
_journal_year                            1967
_journal_volume                          239
_journal_page_first                      690
_journal_page_last                       694
_journal_language                        English
loop_
 _publ_author_name
 _publ_author_address
''
;
;

# Standardized crystallographic data

_cell_length_a                           4.978
_cell_length_b                           4.978
_cell_length_c                           24.25
_cell_angle_alpha                        90
_cell_angle_beta                         90
_cell_angle_gamma                        120
_cell_volume                             520.42
_cell_formula_units_Z                    9
_space_group_IT_number                   166
_space_group_name_H-M_alt                'R -3 m h'
loop_
 _space_group_symop_id
 _space_group_symop_operation_xyz
 1 'x, y, z'
 2 '-x+y, -x, z'
 3 '-x+y, y, z'
 4 '-x, -x+y, -z'
 5 '-x, -y, -z'
 6 '-y, -x, z'
 7 '-y, x-y, z'
 8 'x, x-y, z'
 9 'x-y, -y, -z'
 10 'x-y, x, -z'
 11 'y, -x+y, -z'
 12 'y, x, -z'
 13 '2/3+x, 1/3+y, 1/3+z'
 14 '2/3-x+y, 1/3-x, 1/3+z'
 15 '2/3-x+y, 1/3+y, 1/3+z'
 16 '2/3-x, 1/3-x+y, 1/3-z'
 17 '2/3-x, 1/3-y, 1/3-z'
 18 '2/3-y, 1/3-x, 1/3+z'
 19 '2/3-y, 1/3+x-y, 1/3+z'
 20 '2/3+x, 1/3+x-y, 1/3+z'
 21 '2/3+x-y, 1/3-y, 1/3-z'
 22 '2/3+x-y, 1/3+x, 1/3-z'
 23 '2/3+y, 1/3-x+y, 1/3-z'
 24 '2/3+y, 1/3+x, 1/3-z'
 25 '1/3+x, 2/3+y, 2/3+z'
 26 '1/3-x+y, 2/3-x, 2/3+z'
 27 '1/3-x+y, 2/3+y, 2/3+z'
 28 '1/3-x, 2/3-x+y, 2/3-z'
 29 '1/3-x, 2/3-y, 2/3-z'
 30 '1/3-y, 2/3-x, 2/3+z'
 31 '1/3-y, 2/3+x-y, 2/3+z'
 32 '1/3+x, 2/3+x-y, 2/3+z'
 33 '1/3+x-y, 2/3-y, 2/3-z'
 34 '1/3+x-y, 2/3+x, 2/3-z'
 35 '1/3+y, 2/3-x+y, 2/3-z'
 36 '1/3+y, 2/3+x, 2/3-z'
loop_
 _atom_type_symbol
 Co
 Er
loop_
 _atom_site_label
 _atom_site_type_symbol
 _atom_site_symmetry_multiplicity
 _atom_site_Wyckoff_symbol
 _atom_site_fract_x
 _atom_site_fract_y
 _atom_site_fract_z
 _atom_site_occupancy
 Co3 Co 18 h 0.5 0.5 0.083 1
 Er2 Er 6 c 0 0 0.139 1
 Co2 Co 6 c 0 0 0.333 1
 Co1 Co 3 b 0 0 0.5 1
 Er1 Er 3 a 0 0 0 1


_exptl_crystal_colour                    ?
_exptl_crystal_density_meas              ?
_exptl_crystal_density_diffrn            9.88
_cell_measurement_temperature            ?
_cell_measurement_radiation              'X-rays, Co Ka'
_cell_measurement_wavelength             1.7889
_pd_proc_wavelength                      1.7889
_cell_measurement_reflns_used            ?
_diffrn_ambient_temperature              ?
_diffrn_measurement_device               'Debye-Scherrer film'
_diffrn_measurement_device_type          Norelco
_diffrn_radiation_type                   'X-rays, Co Ka'
_diffrn_reflns_number                    ?
_exptl_absorpt_coefficient_mu            ?
_exptl_absorpt_correction_type           ?
_computing_structure_solution            'starting values from the literature'
_refine_ls_number_parameters             ?
_refine_ls_number_reflns                 ?
_refine_ls_R_factor_gt                   ?
_refine_ls_wR_factor_gt                  ?
_pd_proc_ls_proof_R_factor               ?
_pd_proc_ls_proof_wR_factor              ?
_refine_ls_R_I_factor                    ?

# Published diffraction lines

loop_
 _refln_index_h
 _refln_index_k
 _refln_index_l
 _refln_d_spacing
 _refln_intensity_meas
 1 0 1 4.243 6
 1 0 7 2.701 46
 0 0 9 2.693 0.5
 1 1 0 2.491 53
 0 1 8 2.477 41
 0 2 1 2.146 43
 2 0 2 2.12 100
 0 2 4 2.033 6
 0 0 12 2.021 12
 2 0 5 1.97 26
 0 1 11 1.962 ?
 0 2 7 1.829 11
 1 0 13 1.712 2
 0 0 15 1.616 11
 0 2 10 1.61 1
 0 1 14 1.606 11
 2 1 7 1.474 32
 3 0 0 1.436 48
 0 2 13 1.41 19
 1 1 15 1.355 48
 2 1 10 1.35 29
 1 2 11 1.311 13
 3 0 9 1.268 2
 2 2 0 1.245 55

# End of data set 452301

