##############################################################################
#                                                                            #
# Co-Er            # Er3Co rt                                      #  525032 #
#                                                                            #
##############################################################################
#                                                                            #
#                           Pearson's Crystal Data                           #
#      Crystal Structure Database for Inorganic Compounds (on DVD)           #
#                              Release 2023/24                               #
#                  Editors: Pierre Villars and Karin Cenzual                 #
#                                                                            #
#   Copyright (c) ASM International & Material Phases Data System (MPDS),    #
# Switzerland & National Institute for Materials Science (NIMS), Japan, 2023 #
#                   All rights reserved. Version 2023.07                     #
#                                                                            #
#   This copy of Pearson's Crystal Data is licensed to:                      #
#   Hunter College - City University of New York                             #
#                                                                            #
##############################################################################

data_525032
_audit_creation_date                     2024-05-31
_audit_creation_method
;
Pearson's Crystal Data browser
;
#_database_code_PCD                      525032
_database_code_PDF                       04-004-0551

# Entry summary

_chemical_formula_structural             'Er~3~ Co'
_chemical_formula_sum                    'Co Er3'
_chemical_name_mineral                   ?
_chemical_compound_source                ?
_chemical_name_structure_type            Fe~3~C-b,oP16,62
_chemical_formula_weight                 560.7

# Bibliographic data

_publ_section_title
'Rare-earth cobalt intermetallic compounds'                                   
_journal_coden_ASTM                      PRREA9
_journal_name_full                       'Philips Res. Rep.'
_journal_year                            1971
_journal_volume                          26
_journal_page_first                      49
_journal_page_last                       64
_journal_language                        English
loop_
 _publ_author_name
 _publ_author_address
''
;
;

# Standardized crystallographic data

_cell_length_a                           6.902
_cell_length_b                           9.191
_cell_length_c                           6.189
_cell_angle_alpha                        90
_cell_angle_beta                         90
_cell_angle_gamma                        90
_cell_volume                             392.61
_cell_formula_units_Z                    4
_space_group_IT_number                   62
_space_group_name_H-M_alt                'P n m a'
loop_
 _space_group_symop_id
 _space_group_symop_operation_xyz
 1 'x, y, z'
 2 '1/2-x, -y, 1/2+z'
 3 '1/2-x, 1/2+y, 1/2+z'
 4 '-x, -y, -z'
 5 '-x, 1/2+y, -z'
 6 '1/2+x, 1/2-y, 1/2-z'
 7 '1/2+x, y, 1/2-z'
 8 'x, 1/2-y, z'

# Atomic positions taken from type-defining entry

loop_
 _atom_type_symbol
 Er
 Co
loop_
 _atom_site_label
 _atom_site_type_symbol
 _atom_site_symmetry_multiplicity
 _atom_site_Wyckoff_symbol
 _atom_site_fract_x
 _atom_site_fract_y
 _atom_site_fract_z
 _atom_site_occupancy
 Er1 Er 8 d 0.1834 0.0689 0.1656 1
 Er2 Er 4 c 0.0388 0.25 0.6578 1
 Co1 Co 4 c 0.3764 0.25 0.4426 1


_exptl_crystal_colour                    ?
_exptl_crystal_density_meas              ?
_exptl_crystal_density_diffrn            9.49
_cell_measurement_temperature            ?
_cell_measurement_radiation              'X-rays, Cu Ka'
_cell_measurement_reflns_used            ?
_diffrn_ambient_temperature              ?
_diffrn_measurement_device               'automatic diffractometer'
_diffrn_measurement_device_type          ?
_diffrn_radiation_type                   ?
_diffrn_reflns_number                    ?
_exptl_absorpt_coefficient_mu            ?
_exptl_absorpt_correction_type           ?
_computing_structure_solution            ?
_refine_ls_number_parameters             ?
_refine_ls_number_reflns                 ?
_refine_ls_R_factor_gt                   ?
_refine_ls_wR_factor_gt                  ?

# End of data set 525032

