##############################################################################
#                                                                            #
# Co-Er            # Er2Co17 hex                                   #  528247 #
#                                                                            #
##############################################################################
#                                                                            #
#                           Pearson's Crystal Data                           #
#      Crystal Structure Database for Inorganic Compounds (on DVD)           #
#                              Release 2023/24                               #
#                  Editors: Pierre Villars and Karin Cenzual                 #
#                                                                            #
#   Copyright (c) ASM International & Material Phases Data System (MPDS),    #
# Switzerland & National Institute for Materials Science (NIMS), Japan, 2023 #
#                   All rights reserved. Version 2023.07                     #
#                                                                            #
#   This copy of Pearson's Crystal Data is licensed to:                      #
#   Hunter College - City University of New York                             #
#                                                                            #
##############################################################################

data_528247
_audit_creation_date                     2024-05-31
_audit_creation_method
;
Pearson's Crystal Data browser
;
#_database_code_PCD                      528247
_database_code_PDF                       04-004-3428

# Entry summary

_chemical_formula_structural             'Er~2~ Co~17~'
_chemical_formula_sum                    'Co17 Er2'
_chemical_name_mineral                   ?
_chemical_compound_source                ?
_chemical_name_structure_type            Th~2~Ni~17~,hP38,194
_chemical_formula_weight                 1336.4

# Bibliographic data

_publ_section_title
'Rare earth cobalt compounds with the A~2~B~17~ structure'                    
_journal_coden_ASTM                      ACCRA9
_journal_name_full                       'Acta Crystallogr.'
_journal_year                            1966
_journal_volume                          21
_journal_page_first                      560
_journal_page_last                       565
_journal_language                        English
loop_
 _publ_author_name
 _publ_author_address
''
;
;

# Standardized crystallographic data

_cell_length_a                           8.301
_cell_length_b                           8.301
_cell_length_c                           8.1
_cell_angle_alpha                        90
_cell_angle_beta                         90
_cell_angle_gamma                        120
_cell_volume                             483.37
_cell_formula_units_Z                    2
_space_group_IT_number                   194
_space_group_name_H-M_alt                'P 63/m m c'
loop_
 _space_group_symop_id
 _space_group_symop_operation_xyz
 1 'x, y, z'
 2 '-x+y, -x, 1/2-z'
 3 '-x+y, -x, z'
 4 '-x+y, y, 1/2-z'
 5 '-x+y, y, z'
 6 '-x, -x+y, -z'
 7 '-x, -x+y, 1/2+z'
 8 '-x, -y, -z'
 9 '-x, -y, 1/2+z'
 10 '-y, -x, 1/2-z'
 11 '-y, -x, z'
 12 '-y, x-y, 1/2-z'
 13 '-y, x-y, z'
 14 'x, x-y, 1/2-z'
 15 'x, x-y, z'
 16 'x, y, 1/2-z'
 17 'x-y, -y, -z'
 18 'x-y, -y, 1/2+z'
 19 'x-y, x, -z'
 20 'x-y, x, 1/2+z'
 21 'y, -x+y, -z'
 22 'y, -x+y, 1/2+z'
 23 'y, x, -z'
 24 'y, x, 1/2+z'
loop_
 _atom_type_symbol
 Co
 Er
loop_
 _atom_site_label
 _atom_site_type_symbol
 _atom_site_symmetry_multiplicity
 _atom_site_Wyckoff_symbol
 _atom_site_fract_x
 _atom_site_fract_y
 _atom_site_fract_z
 _atom_site_occupancy
CoIV Co 12 k 0.1667 0.3334 0.0 1
CoIII Co 12 j 0.0 0.3333 0.25 1
CoII Co 6 g 0.5 0 0 1
CoI Co 4 f 0.333333 0.666667 0.61 1
ErII Er 2 c 0.333333 0.666667 0.25 1
ErI Er 2 b 0 0 0.25 1


_exptl_crystal_colour                    ?
_exptl_crystal_density_meas              9.15
_exptl_crystal_density_diffrn            9.18
_cell_measurement_temperature            ?
_cell_measurement_radiation              'X-rays, Co Ka'
_cell_measurement_wavelength             1.7889
_pd_proc_wavelength                      1.7889
_cell_measurement_reflns_used            ?
_diffrn_ambient_temperature              ?
_diffrn_measurement_device               'Debye-Scherrer film'
_diffrn_measurement_device_type          ?
_diffrn_radiation_type                   ?
_diffrn_reflns_number                    ?
_exptl_absorpt_coefficient_mu            ?
_exptl_absorpt_correction_type           ?
_computing_structure_solution            ?
_refine_ls_number_parameters             ?
_refine_ls_number_reflns                 ?
_refine_ls_R_factor_gt                   ?
_refine_ls_wR_factor_gt                  ?

# Published diffraction lines

loop_
 _refln_index_h
 _refln_index_k
 _refln_index_l
 _refln_d_spacing
 _refln_intensity_meas
 1 0 1 5.367 2
 1 1 0 4.144 1
 1 0 2 3.522 1
 2 0 1 3.282 3
 1 1 2 2.888 5
 2 0 2 2.685 1
 1 2 1 2.574 3
 1 0 3 2.525 3
 3 0 0 2.395 7
 1 2 2 2.256 2
 2 0 3 2.156 5
 2 2 0 2.074 8
 3 0 2 2.06 8
 0 0 4 2.026 6
 1 3 1 1.936 2
 1 2 3 1.914 5
 2 2 2 1.846 5
 1 1 4 1.82 1
 1 3 2 1.789 1
 2 0 4 1.764 1
 4 0 1 1.755 2
 1 2 4 1.625 1
 2 3 1 1.615 1
 1 0 5 1.58 1
 1 4 0 1.569 1
 3 0 4 1.547 4
 2 3 2 1.527 1
 4 0 3 1.495 1
 2 0 5 1.477 1
 1 4 2 1.463 4
 2 2 4 1.45 6
 1 3 4 1.421 1
 5 0 1 1.416 2
 2 3 3 1.408 4
 1 2 5 1.392 2
 3 3 0 1.385 4
 0 0 6 1.351 1
 4 0 4 1.343 1
 2 4 1 1.34 1
 3 3 2 1.31 7
 2 4 2 1.288 1
 1 1 6 1.284 4
 2 3 4 1.276 1
 5 0 3 1.266 1
 1 3 5 1.258 1
 1 5 2 1.23 1
 2 4 3 1.214 4
 4 0 5 1.203 1
 6 0 0 1.198 8

# End of data set 528247

